
    -----------------------------------------------------------------------
          Psi4: An Open-Source Ab Initio Electronic Structure Package
                               Psi4 1.5 release

                         Git: Rev {HEAD} e9f4d6d 


    D. G. A. Smith, L. A. Burns, A. C. Simmonett, R. M. Parrish,
    M. C. Schieber, R. Galvelis, P. Kraus, H. Kruse, R. Di Remigio,
    A. Alenaizan, A. M. James, S. Lehtola, J. P. Misiewicz, M. Scheurer,
    R. A. Shaw, J. B. Schriber, Y. Xie, Z. L. Glick, D. A. Sirianni,
    J. S. O'Brien, J. M. Waldrop, A. Kumar, E. G. Hohenstein,
    B. P. Pritchard, B. R. Brooks, H. F. Schaefer III, A. Yu. Sokolov,
    K. Patkowski, A. E. DePrince III, U. Bozkaya, R. A. King,
    F. A. Evangelista, J. M. Turney, T. D. Crawford, C. D. Sherrill,
    J. Chem. Phys. 152(18) 184108 (2020). https://doi.org/10.1063/5.0006002

                            Additional Code Authors
    E. T. Seidl, C. L. Janssen, E. F. Valeev, M. L. Leininger,
    J. F. Gonthier, R. M. Richard, H. R. McAlexander, M. Saitow, X. Wang,
    P. Verma, M. H. Lechner, and A. Jiang

             Previous Authors, Complete List of Code Contributors,
                       and Citations for Specific Modules
    https://github.com/psi4/psi4/blob/master/codemeta.json
    https://github.com/psi4/psi4/graphs/contributors
    http://psicode.org/psi4manual/master/introduction.html#citing-psifour

    -----------------------------------------------------------------------


    Psi4 started on: Tuesday, 28 June 2022 10:52AM

    Process ID: 87124
    Host:       c004
    PSIDATADIR: /home/ndyonker/git/psi4/objdir/stage/share/psi4
    Memory:     500.0 MiB
    Threads:    10
    
  ==> Input File <==

--------------------------------------------------------------------------
memory 120GB

molecule frame {
-1 1
N   36.604  96.473 117.829
C   37.356  95.470 118.200
C   36.685  94.547 119.158
O   35.380  94.492 119.246
O   37.521  93.861 119.841
H   38.318  95.372 118.276
H   37.476  94.711 117.085
H   36.442  97.021 118.670
H   35.776  96.332 117.254
--
2 1
C   42.844 105.270 117.275
C   42.503 104.490 116.003
C   41.522 103.362 116.233
C   40.169 103.622 116.457
C   41.938 102.037 116.198
C   39.258 102.590 116.635
C   41.033 100.998 116.376
C   39.695 101.279 116.591
O   38.793 100.251 116.765
H   43.677 105.944 117.075
H   41.976 105.849 117.590
H   43.123 104.573 118.065
H   42.090 105.177 115.264
H   43.422 104.082 115.580
H   39.825 104.645 116.492
H   42.981 101.811 116.030
H   38.215 102.810 116.808
H   41.373  99.973 116.346
H   38.535  99.892 115.890
C   45.938  95.588 114.414
C   45.216  96.550 113.478
C   43.743  96.358 113.544
C   42.931  95.904 112.551
C   42.914  96.532 114.695
C   41.606  96.155 114.327
C   43.151  96.966 116.007
N   41.646  95.778 113.011
C   40.532  96.200 115.223
C   42.086  97.010 116.898
C   40.792  96.628 116.500
H   45.294  95.352 115.261
H   46.183  94.672 113.876
H   46.855  96.053 114.775
H   45.464  97.577 113.745
H   45.561  96.395 112.456
H   43.252  95.676 111.546
H   40.849  95.456 112.462
H   44.142  97.260 116.318
H   39.537  95.909 114.921
H   42.254  97.343 117.911
H   39.985  96.674 117.216
C   45.170  91.507 116.745
C   44.268  90.607 115.898
O   43.640  89.683 116.419
C   44.467  92.840 117.030
C   43.160  92.690 117.777
C   42.053  93.477 117.455
C   43.027  91.753 118.798
C   40.843  93.330 118.137
C   41.827  91.597 119.486
C   40.740  92.385 119.153
O   39.565  92.222 119.854
H   45.395  91.008 117.688
H   46.094  91.701 116.199
H   45.135  93.477 117.610
H   44.280  93.351 116.085
H   42.134  94.211 116.667
H   43.872  91.135 119.061
H   39.994  93.944 117.876
H   41.744  90.865 120.276
H   38.981  92.993 119.698
N   44.214  90.878 114.592
C   43.393  90.102 113.665
C   43.329  90.763 112.274
C   42.419  91.986 112.315
C   42.796  89.777 111.254
C   42.466  92.798 111.055
H   43.820  89.104 113.564
H   42.381  90.053 114.066
H   44.735  91.637 114.153
H   44.335  91.071 111.990
H   41.394  91.662 112.493
H   42.705  92.616 113.157
H   42.754  90.253 110.274
H   43.453  88.909 111.208
H   41.794  89.458 111.546
H   41.797  93.653 111.148
H   43.484  93.150 110.887
H   42.152  92.182 110.213
C   39.698  85.345 109.333
C   40.134  86.766 109.698
C   38.966  87.711 109.939
C   39.378  89.166 109.865
N   38.240  90.010 109.524
C   37.867  91.088 110.208
N   38.539  91.465 111.282
N   36.822  91.795 109.813
H   40.467  84.874 108.721
H   38.763  85.385 108.774
H   39.552  84.764 110.244
H   40.754  86.730 110.594
H   40.756  87.165 108.896
H   38.188  87.518 109.201
H   38.533  87.508 110.919
H   39.795  89.480 110.822
H   40.164  89.289 109.119
H   37.692  89.756 108.703
H   39.349  90.928 111.591
H   38.247  92.293 111.802
H   36.301  91.514 108.983
H   36.537  92.621 110.339
C   34.746 100.851 108.556
C   36.038 100.249 108.032
O   36.551  99.286 108.599
H   34.101 101.115 107.718
H   34.238 100.124 109.189
H   34.971 101.745 109.138
N   36.551 100.809 106.939
C   37.766 100.312 106.295
C   38.844  99.732 107.209
O   39.342  98.631 106.968
H   37.472  99.531 105.594
H   38.224 101.189 105.837
H   36.137 101.619 106.475
N   39.208 100.463 108.255
C   40.244  99.973 109.139
H   41.165  99.896 108.561
H   38.812 101.370 108.503
H   40.370 100.652 109.983
H   39.961  99.004 109.549
C   40.853  93.639 105.639
C   40.429  93.157 107.041
C   40.507  91.642 107.105
C   41.314  93.780 108.088
H   41.883  93.339 105.449
H   40.201  93.193 104.888
H   40.776  94.725 105.589
H   39.401  93.463 107.234
H   40.207  91.304 108.097
H   39.840  91.211 106.358
H   41.530  91.322 106.907
H   41.008  93.434 109.075
H   42.350  93.492 107.909
H   41.226  94.865 108.041
C   37.439 105.570 107.798
C   37.849 106.892 108.430
O   38.412 107.752 107.750
C   38.535 104.525 107.964
C   38.754 104.141 109.408
O   38.362 103.026 109.810
O   39.331 104.961 110.144
H   36.528 105.212 108.277
H   37.270 105.731 106.733
H   38.274 103.636 107.390
H   39.466 104.911 107.549
N   37.574 107.070 109.718
C   37.924 108.328 110.372
C   39.358 108.374 110.867
O   39.936 109.449 111.019
C   36.973 108.606 111.531
H   37.124 106.379 110.318
H   37.826 109.102 109.611
H   37.246 109.547 112.009
H   35.952 108.673 111.155
H   37.039 107.797 112.259
N   39.938 107.209 111.120
C   41.300 107.156 111.623
C   41.485 105.964 112.558
O   42.863 105.673 112.706
H   42.010 107.041 110.804
H   39.493 106.301 110.986
H   41.466 108.085 112.168
H   41.045 106.183 113.531
H   40.962 105.094 112.160
H   42.975 104.928 113.333
C   44.348 102.880 110.360
C   42.936 102.567 110.838
C   42.829 102.431 112.341
S   42.517 100.733 112.846
C   44.086 100.156 112.921
H   45.040 102.143 110.766
H   44.379 102.846 109.271
H   44.636 103.874 110.701
H   42.262 103.354 110.502
H   42.600 101.640 110.371
H   43.751 102.783 112.803
H   42.026 103.071 112.705
H   44.118  99.136 112.537
H   44.736 100.790 112.318
H   44.428 100.166 113.956
C   35.399 110.125 106.455
C   34.865 109.733 107.829
O   35.408 108.838 108.485
H   36.432 109.792 106.351
H   34.803 109.657 105.672
H   35.350 111.210 106.368
N   33.798 110.394 108.266
C   33.211 110.097 109.563
C   31.713 109.911 109.445
O   31.026 110.771 108.906
C   33.495 111.224 110.551
C   33.021 110.895 111.949
N   33.944 110.937 112.904
O   31.835 110.603 112.176
H   33.327 111.133 107.744
H   33.661 109.174 109.926
H   34.566 111.425 110.571
H   33.006 112.136 110.209
H   33.690 110.724 113.869
H   34.907 111.182 112.672
N   31.212 108.793 109.967
C   29.787 108.486 109.910
C   29.451 107.343 110.871
C   30.335 106.138 110.691
C   30.894 105.701 109.529
C   30.796 105.252 111.714
C   31.638 104.302 111.095
C   30.579 105.168 113.095
N   31.680 104.601 109.761
C   32.268 103.281 111.808
C   31.208 104.151 113.806
C   32.041 103.220 113.159
H   29.211 109.366 110.195
H   31.775 108.083 110.436
H   29.548 108.174 108.893
H   29.540 107.702 111.897
H   28.412 107.050 110.725
H   30.740 106.156 108.562
H   32.209 104.090 109.054
H   29.941 105.878 113.597
H   32.910 102.566 111.315
H   31.053 104.073 114.872
H   32.512 102.440 113.739
C   31.884  94.871 109.904
C   32.982  95.092 110.937
O   33.676  96.094 110.915
H   32.124  94.048 109.231
H   31.757  95.760 109.287
H   30.978  94.672 110.475
N   33.119  94.127 111.845
C   34.151  94.176 112.870
C   33.863  94.897 114.178
O   34.792  95.233 114.915
H   32.524  93.300 111.890
H   34.420  93.148 113.114
H   35.032  94.639 112.427
N   32.591  95.113 114.487
C   32.217  95.820 115.703
C   32.828  97.217 115.679
O   33.551  97.613 116.597
C   32.696  95.075 116.950
C   32.069  95.620 118.219
N   32.828  95.626 119.307
O   30.910  96.039 118.215
H   31.804  94.809 113.913
H   31.130  95.883 115.742
H   32.455  94.016 116.855
H   33.781  95.150 117.022
H   32.457  95.987 120.186
H   33.783  95.269 119.265
N   32.541  97.953 114.609
C   33.059  99.301 114.441
C   33.399  99.555 112.972
O   34.379  98.638 112.514
H   32.320 100.043 114.745
H   31.949  97.633 113.842
H   33.958  99.375 115.053
H   32.498  99.464 112.365
H   33.764 100.575 112.850
H   33.942  97.905 112.033
C   32.582 102.862 119.009
C   31.897 104.190 119.281
O   32.274 104.908 120.207
C   33.722 103.071 118.008
C   34.790 102.018 118.069
C   35.000 100.927 117.301
N   35.801 102.028 119.004
C   36.588 100.985 118.810
N   36.125 100.301 117.783
H   31.859 102.159 118.595
H   32.984 102.462 119.940
H   33.336 103.065 116.989
H   34.212 104.024 118.204
H   35.912 102.732 119.721
H   34.469 100.510 116.446
H   37.451 100.815 119.453
N   30.875 104.503 118.486
C   30.151 105.764 118.642
C   29.073 105.890 117.564
C   28.905 107.254 116.899
C   30.246 107.933 116.730
C   28.252 107.058 115.556
H   29.683 105.792 119.626
H   30.853 106.592 118.542
H   30.531 103.906 117.734
H   29.288 105.159 116.785
H   28.116 105.611 118.007
H   28.281 107.890 117.528
H   30.105 108.904 116.254
H   30.709 108.071 117.707
H   30.891 107.314 116.107
H   28.126 108.025 115.069
H   28.882 106.419 114.936
H   27.278 106.589 115.690
C   29.460  92.426 119.376
C   30.479  92.875 120.421
C   31.914  92.496 120.124
C   32.773  92.649 121.370
N   34.201  92.671 121.073
C   35.011  91.635 121.258
N   34.527  90.496 121.739
N   36.304  91.742 120.978
H   29.911  92.472 118.385
H   28.592  93.084 119.410
H   29.149  91.403 119.587
H   30.419  93.959 120.522
H   30.199  92.450 121.385
H   31.959  91.467 119.768
H   32.305  93.126 119.325
H   32.499  93.571 121.884
H   32.562  91.828 122.055
H   34.601  93.533 120.701
H   33.535  90.418 121.965
H   35.147  89.700 121.882
H   36.677  92.621 120.620
H   36.924  90.945 121.121
C   40.056  88.559 115.512
C   40.061  89.678 116.555
C   39.335  90.914 116.072
C   38.002  91.148 116.417
C   39.967  91.831 115.228
C   37.318  92.266 115.932
C   39.296  92.949 114.737
C   37.975  93.159 115.092
O   37.313  94.271 114.625
H   40.655  87.723 115.872
H   39.032  88.226 115.340
H   40.478  88.931 114.578
H   39.593  89.318 117.472
H   41.090  89.936 116.803
H   37.492  90.455 117.069
H   40.998  91.670 114.950
H   36.287  92.434 116.205
H   39.802  93.645 114.085
H   36.402  94.285 114.987
C   43.816  94.506 124.959
C   43.679  94.674 123.446
C   42.272  94.926 122.970
C   41.715  96.200 123.031
C   41.498  93.892 122.452
C   40.421  96.440 122.586
C   40.201  94.122 122.003
C   39.674  95.400 122.076
O   38.404  95.644 121.634
H   42.825  94.476 125.413
H   44.344  93.577 125.176
H   44.377  95.346 125.368
H   44.311  95.503 123.127
H   44.059  93.777 122.958
H   42.299  97.016 123.431
H   41.911  92.895 122.397
H   40.003  97.435 122.639
H   39.611  93.311 121.604
H   38.030  94.826 121.244
C   32.091 100.771 122.855
C   32.050  99.325 122.360
C   33.373  98.821 121.845
C   33.713  98.942 120.496
C   34.297  98.251 122.706
C   34.946  98.511 120.025
C   35.533  97.817 122.244
C   35.850  97.954 120.907
O   37.088  97.563 120.469
H   31.074 101.128 123.021
H   32.651 100.820 123.789
H   32.578 101.397 122.107
H   31.720  98.681 123.175
H   31.308  99.243 121.567
H   33.005  99.378 119.807
H   34.052  98.143 123.752
H   35.195  98.610 118.979
H   36.242  97.374 122.927
H   37.557  97.093 121.190
C   38.319  96.368 110.768
C   38.516  94.893 110.920
O   37.553  94.134 110.712
C   38.608  97.016 112.113
C   37.665  98.122 112.411
S   37.896  98.937 113.998
C   37.346  97.733 115.216
C   36.675 100.179 114.042
C   36.908 101.326 113.090
O   35.820 102.259 113.233
C   38.142 102.154 113.432
O   39.131 101.802 112.428
C   37.733 103.601 113.256
O   38.547 104.491 112.537
C   36.277 103.486 112.760
O   39.695  94.555 111.267
N   33.383 107.513 111.351
C   34.137 106.648 110.628
N   34.876 105.611 111.084
C   34.802 105.485 112.448
C   34.073 106.291 113.315
C   33.332 107.350 112.720
N   32.578 108.206 113.451
N   34.229 105.874 114.629
C   35.028 104.842 114.535
N   35.418 104.548 113.250
N   36.914  96.647 110.350
H   32.536 108.119 114.306
H   32.142 108.836 113.060
H   38.914  96.726 110.091
H   39.516  97.356 112.119
H   38.551  96.346 112.813
H   36.761  97.773 112.374
H   37.741  98.788 111.710
H   37.202  96.877 114.783
H   36.517  98.035 115.618
H   38.022  97.637 115.905
H   38.791 104.130 111.819
H   38.869 102.062 111.673
H   35.356 104.266 115.400
H   37.012 100.880 112.101
H   38.530 101.988 114.437
H   37.857 104.125 114.204
H   36.251 103.568 111.673
H   34.149 106.808 109.550
H   36.551  95.856 109.838
H   36.894  97.468 109.762
H   36.345  96.807 111.169
H   36.620 100.530 114.945
H   35.815  99.777 113.841  

    units angstrom
    no_reorient
    symmetry c1
}

set globals {
    basis     jun-cc-pvdz
    df_basis_scf  jun-cc-pvdz-jkfit
    df_basis_sapt jun-cc-pvdz-ri
    guess     sad
    scf_type  df
    freeze_core true
}

set sapt {
    print     1
}

energy('fisapt0')
--------------------------------------------------------------------------

  Memory set to 111.759 GiB by Python driver.

Scratch directory: /home/scratch/ndyonker/2748187/

*** tstart() called on c004
*** at Tue Jun 28 10:52:02 2022

   => Loading Basis Set <=

    Name: JUN-CC-PVDZ
    Role: ORBITAL
    Keyword: BASIS
    atoms 1, 36, 71, 93, 95-96, 117, 124, 155, 165, 196, 202, 210, 218, 239, 246, 252, 260, 276, 278, 286, 308, 310-311, 399, 401, 405-406, 408-409                                                                                                                                                                                                                                       entry N          line   198 file /home/ndyonker/git/psi4/objdir/stage/share/psi4/basis/jun-cc-pvdz.gbs 
    atoms 2-3, 10-17, 29-35, 37-39, 51-52, 54-60, 72-76, 89-92, 94, 111-112, 118-119, 125, 130-133, 144-145, 147-148, 156-157, 159, 166-167, 175-177, 179, 190-191, 197-198, 200-201, 211-217, 219-221, 233-234, 240-241, 247-248, 250-251, 261-262, 270-271, 273-275, 277, 287-291, 304-307, 309, 326-333, 345-352, 364-371, 383-384, 386-387, 389-391, 393, 395, 397, 400, 402-404, 407 entry C          line   164 file /home/ndyonker/git/psi4/objdir/stage/share/psi4/basis/jun-cc-pvdz.gbs 
    atoms 4-5, 18, 53, 61, 113, 120, 146, 149-150, 158, 168, 192, 199, 203, 235, 242, 249, 253, 263, 272, 334, 353, 372, 385, 392, 394, 396, 398                                                                                                                                                                                                                                          entry O          line   232 file /home/ndyonker/git/psi4/objdir/stage/share/psi4/basis/jun-cc-pvdz.gbs 
    atoms 6-9, 19-28, 40-50, 62-70, 77-88, 97-110, 114-116, 121-123, 126-129, 134-143, 151-154, 160-164, 169-174, 180-189, 193-195, 204-209, 222-232, 236-238, 243-245, 254-259, 264-269, 279-285, 292-303, 312-325, 335-344, 354-363, 373-382, 410-432                                                                                                                                   entry H          line    36 file /home/ndyonker/git/psi4/objdir/stage/share/psi4/basis/jun-cc-pvdz.gbs 
    atoms 178, 388                                                                                                                                                                                                                                                                                                                                                                        entry S          line   664 file /home/ndyonker/git/psi4/objdir/stage/share/psi4/basis/jun-cc-pvdz.gbs 


         ---------------------------------------------------------
                                   SCF
               by Justin Turney, Rob Parrish, Andy Simmonett
                          and Daniel G. A. Smith
                              RHF Reference
                       10 Threads, 114440 MiB Core
         ---------------------------------------------------------

  ==> Geometry <==

    Molecular point group: c1
    Full point group: C1

    Geometry (in Angstrom), charge = 1, multiplicity = 1:

       Center              X                  Y                   Z               Mass       
    ------------   -----------------  -----------------  -----------------  -----------------
         N           -0.546854762263    -2.733904764827     3.562010286603    14.003074004430
         C            0.205145237737    -3.736904764827     3.933010286603    12.000000000000
         C           -0.465854762263    -4.659904764827     4.891010286603    12.000000000000
         O           -1.770854762263    -4.714904764827     4.979010286603    15.994914619570
         O            0.370145237737    -5.345904764827     5.574010286603    15.994914619570
         H            1.167145237737    -3.834904764827     4.009010286603     1.007825032230
         H            0.325145237737    -4.495904764827     2.818010286603     1.007825032230
         H           -0.708854762263    -2.185904764827     4.403010286603     1.007825032230
         H           -1.374854762263    -2.874904764827     2.987010286603     1.007825032230
         C            5.693145237737     6.063095235173     3.008010286603    12.000000000000
         C            5.352145237737     5.283095235173     1.736010286603    12.000000000000
         C            4.371145237737     4.155095235173     1.966010286603    12.000000000000
         C            3.018145237737     4.415095235173     2.190010286603    12.000000000000
         C            4.787145237737     2.830095235173     1.931010286603    12.000000000000
         C            2.107145237737     3.383095235173     2.368010286603    12.000000000000
         C            3.882145237737     1.791095235173     2.109010286603    12.000000000000
         C            2.544145237737     2.072095235173     2.324010286603    12.000000000000
         O            1.642145237737     1.044095235173     2.498010286603    15.994914619570
         H            6.526145237737     6.737095235173     2.808010286603     1.007825032230
         H            4.825145237737     6.642095235173     3.323010286603     1.007825032230
         H            5.972145237737     5.366095235173     3.798010286603     1.007825032230
         H            4.939145237737     5.970095235173     0.997010286603     1.007825032230
         H            6.271145237737     4.875095235173     1.313010286603     1.007825032230
         H            2.674145237737     5.438095235173     2.225010286603     1.007825032230
         H            5.830145237737     2.604095235173     1.763010286603     1.007825032230
         H            1.064145237737     3.603095235173     2.541010286603     1.007825032230
         H            4.222145237737     0.766095235173     2.079010286603     1.007825032230
         H            1.384145237737     0.685095235173     1.623010286603     1.007825032230
         C            8.787145237737    -3.618904764827     0.147010286603    12.000000000000
         C            8.065145237737    -2.656904764827    -0.788989713397    12.000000000000
         C            6.592145237737    -2.848904764827    -0.722989713397    12.000000000000
         C            5.780145237737    -3.302904764827    -1.715989713397    12.000000000000
         C            5.763145237737    -2.674904764827     0.428010286603    12.000000000000
         C            4.455145237737    -3.051904764827     0.060010286603    12.000000000000
         C            6.000145237737    -2.240904764827     1.740010286603    12.000000000000
         N            4.495145237737    -3.428904764827    -1.255989713397    14.003074004430
         C            3.381145237737    -3.006904764827     0.956010286603    12.000000000000
         C            4.935145237737    -2.196904764827     2.631010286603    12.000000000000
         C            3.641145237737    -2.578904764827     2.233010286603    12.000000000000
         H            8.143145237737    -3.854904764827     0.994010286603     1.007825032230
         H            9.032145237737    -4.534904764827    -0.390989713397     1.007825032230
         H            9.704145237737    -3.153904764827     0.508010286603     1.007825032230
         H            8.313145237737    -1.629904764827    -0.521989713397     1.007825032230
         H            8.410145237737    -2.811904764827    -1.810989713397     1.007825032230
         H            6.101145237737    -3.530904764827    -2.720989713397     1.007825032230
         H            3.698145237737    -3.750904764827    -1.804989713397     1.007825032230
         H            6.991145237737    -1.946904764827     2.051010286603     1.007825032230
         H            2.386145237737    -3.297904764827     0.654010286603     1.007825032230
         H            5.103145237737    -1.863904764827     3.644010286603     1.007825032230
         H            2.834145237737    -2.532904764827     2.949010286603     1.007825032230
         C            8.019145237737    -7.699904764827     2.478010286603    12.000000000000
         C            7.117145237737    -8.599904764827     1.631010286603    12.000000000000
         O            6.489145237737    -9.523904764827     2.152010286603    15.994914619570
         C            7.316145237737    -6.366904764827     2.763010286603    12.000000000000
         C            6.009145237737    -6.516904764827     3.510010286603    12.000000000000
         C            4.902145237737    -5.729904764827     3.188010286603    12.000000000000
         C            5.876145237737    -7.453904764827     4.531010286603    12.000000000000
         C            3.692145237737    -5.876904764827     3.870010286603    12.000000000000
         C            4.676145237737    -7.609904764827     5.219010286603    12.000000000000
         C            3.589145237737    -6.821904764827     4.886010286603    12.000000000000
         O            2.414145237737    -6.984904764827     5.587010286603    15.994914619570
         H            8.244145237737    -8.198904764827     3.421010286603     1.007825032230
         H            8.943145237737    -7.505904764827     1.932010286603     1.007825032230
         H            7.984145237737    -5.729904764827     3.343010286603     1.007825032230
         H            7.129145237737    -5.855904764827     1.818010286603     1.007825032230
         H            4.983145237737    -4.995904764827     2.400010286603     1.007825032230
         H            6.721145237737    -8.071904764827     4.794010286603     1.007825032230
         H            2.843145237737    -5.262904764827     3.609010286603     1.007825032230
         H            4.593145237737    -8.341904764827     6.009010286603     1.007825032230
         H            1.830145237737    -6.213904764827     5.431010286603     1.007825032230
         N            7.063145237737    -8.328904764827     0.325010286603    14.003074004430
         C            6.242145237737    -9.104904764827    -0.601989713397    12.000000000000
         C            6.178145237737    -8.443904764827    -1.992989713397    12.000000000000
         C            5.268145237737    -7.220904764827    -1.951989713397    12.000000000000
         C            5.645145237737    -9.429904764827    -3.012989713397    12.000000000000
         C            5.315145237737    -6.408904764827    -3.211989713397    12.000000000000
         H            6.669145237737   -10.102904764827    -0.702989713397     1.007825032230
         H            5.230145237737    -9.153904764827    -0.200989713397     1.007825032230
         H            7.584145237737    -7.569904764827    -0.113989713397     1.007825032230
         H            7.184145237737    -8.135904764827    -2.276989713397     1.007825032230
         H            4.243145237737    -7.544904764827    -1.773989713397     1.007825032230
         H            5.554145237737    -6.590904764827    -1.109989713397     1.007825032230
         H            5.603145237737    -8.953904764827    -3.992989713397     1.007825032230
         H            6.302145237737   -10.297904764827    -3.058989713397     1.007825032230
         H            4.643145237737    -9.748904764827    -2.720989713397     1.007825032230
         H            4.646145237737    -5.553904764827    -3.118989713397     1.007825032230
         H            6.333145237737    -6.056904764827    -3.379989713397     1.007825032230
         H            5.001145237737    -7.024904764827    -4.053989713397     1.007825032230
         C            2.547145237737   -13.861904764827    -4.933989713397    12.000000000000
         C            2.983145237737   -12.440904764827    -4.568989713397    12.000000000000
         C            1.815145237737   -11.495904764827    -4.327989713397    12.000000000000
         C            2.227145237737   -10.040904764827    -4.401989713397    12.000000000000
         N            1.089145237737    -9.196904764827    -4.742989713397    14.003074004430
         C            0.716145237737    -8.118904764827    -4.058989713397    12.000000000000
         N            1.388145237737    -7.741904764827    -2.984989713397    14.003074004430
         N           -0.328854762263    -7.411904764827    -4.453989713397    14.003074004430
         H            3.316145237737   -14.332904764827    -5.545989713397     1.007825032230
         H            1.612145237737   -13.821904764827    -5.492989713397     1.007825032230
         H            2.401145237737   -14.442904764827    -4.022989713397     1.007825032230
         H            3.603145237737   -12.476904764827    -3.672989713397     1.007825032230
         H            3.605145237737   -12.041904764827    -5.370989713397     1.007825032230
         H            1.037145237737   -11.688904764827    -5.065989713397     1.007825032230
         H            1.382145237737   -11.698904764827    -3.347989713397     1.007825032230
         H            2.644145237737    -9.726904764827    -3.444989713397     1.007825032230
         H            3.013145237737    -9.917904764827    -5.147989713397     1.007825032230
         H            0.541145237737    -9.450904764827    -5.563989713397     1.007825032230
         H            2.198145237737    -8.278904764827    -2.675989713397     1.007825032230
         H            1.096145237737    -6.913904764827    -2.464989713397     1.007825032230
         H           -0.849854762263    -7.692904764827    -5.283989713397     1.007825032230
         H           -0.613854762263    -6.585904764827    -3.927989713397     1.007825032230
         C           -2.404854762263     1.644095235173    -5.710989713397    12.000000000000
         C           -1.112854762263     1.042095235173    -6.234989713397    12.000000000000
         O           -0.599854762263     0.079095235173    -5.667989713397    15.994914619570
         H           -3.049854762263     1.908095235173    -6.548989713397     1.007825032230
         H           -2.912854762263     0.917095235173    -5.077989713397     1.007825032230
         H           -2.179854762263     2.538095235173    -5.128989713397     1.007825032230
         N           -0.599854762263     1.602095235173    -7.327989713397    14.003074004430
         C            0.615145237737     1.105095235173    -7.971989713397    12.000000000000
         C            1.693145237737     0.525095235173    -7.057989713397    12.000000000000
         O            2.191145237737    -0.575904764827    -7.298989713397    15.994914619570
         H            0.321145237737     0.324095235173    -8.672989713397     1.007825032230
         H            1.073145237737     1.982095235173    -8.429989713397     1.007825032230
         H           -1.013854762263     2.412095235173    -7.791989713397     1.007825032230
         N            2.057145237737     1.256095235173    -6.011989713397    14.003074004430
         C            3.093145237737     0.766095235173    -5.127989713397    12.000000000000
         H            4.014145237737     0.689095235173    -5.705989713397     1.007825032230
         H            1.661145237737     2.163095235173    -5.763989713397     1.007825032230
         H            3.219145237737     1.445095235173    -4.283989713397     1.007825032230
         H            2.810145237737    -0.202904764827    -4.717989713397     1.007825032230
         C            3.702145237737    -5.567904764827    -8.627989713397    12.000000000000
         C            3.278145237737    -6.049904764827    -7.225989713397    12.000000000000
         C            3.356145237737    -7.564904764827    -7.161989713397    12.000000000000
         C            4.163145237737    -5.426904764827    -6.178989713397    12.000000000000
         H            4.732145237737    -5.867904764827    -8.817989713397     1.007825032230
         H            3.050145237737    -6.013904764827    -9.378989713397     1.007825032230
         H            3.625145237737    -4.481904764827    -8.677989713397     1.007825032230
         H            2.250145237737    -5.743904764827    -7.032989713397     1.007825032230
         H            3.056145237737    -7.902904764827    -6.169989713397     1.007825032230
         H            2.689145237737    -7.995904764827    -7.908989713397     1.007825032230
         H            4.379145237737    -7.884904764827    -7.359989713397     1.007825032230
         H            3.857145237737    -5.772904764827    -5.191989713397     1.007825032230
         H            5.199145237737    -5.714904764827    -6.357989713397     1.007825032230
         H            4.075145237737    -4.341904764827    -6.225989713397     1.007825032230
         C            0.288145237737     6.363095235173    -6.468989713397    12.000000000000
         C            0.698145237737     7.685095235173    -5.836989713397    12.000000000000
         O            1.261145237737     8.545095235173    -6.516989713397    15.994914619570
         C            1.384145237737     5.318095235173    -6.302989713397    12.000000000000
         C            1.603145237737     4.934095235173    -4.858989713397    12.000000000000
         O            1.211145237737     3.819095235173    -4.456989713397    15.994914619570
         O            2.180145237737     5.754095235173    -4.122989713397    15.994914619570
         H           -0.622854762263     6.005095235173    -5.989989713397     1.007825032230
         H            0.119145237737     6.524095235173    -7.533989713397     1.007825032230
         H            1.123145237737     4.429095235173    -6.876989713397     1.007825032230
         H            2.315145237737     5.704095235173    -6.717989713397     1.007825032230
         N            0.423145237737     7.863095235173    -4.548989713397    14.003074004430
         C            0.773145237737     9.121095235173    -3.894989713397    12.000000000000
         C            2.207145237737     9.167095235173    -3.399989713397    12.000000000000
         O            2.785145237737    10.242095235173    -3.247989713397    15.994914619570
         C           -0.177854762263     9.399095235173    -2.735989713397    12.000000000000
         H           -0.026854762263     7.172095235173    -3.948989713397     1.007825032230
         H            0.675145237737     9.895095235173    -4.655989713397     1.007825032230
         H            0.095145237737    10.340095235173    -2.257989713397     1.007825032230
         H           -1.198854762263     9.466095235173    -3.111989713397     1.007825032230
         H           -0.111854762263     8.590095235173    -2.007989713397     1.007825032230
         N            2.787145237737     8.002095235173    -3.146989713397    14.003074004430
         C            4.149145237737     7.949095235173    -2.643989713397    12.000000000000
         C            4.334145237737     6.757095235173    -1.708989713397    12.000000000000
         O            5.712145237737     6.466095235173    -1.560989713397    15.994914619570
         H            4.859145237737     7.834095235173    -3.462989713397     1.007825032230
         H            2.342145237737     7.094095235173    -3.280989713397     1.007825032230
         H            4.315145237737     8.878095235173    -2.098989713397     1.007825032230
         H            3.894145237737     6.976095235173    -0.735989713397     1.007825032230
         H            3.811145237737     5.887095235173    -2.106989713397     1.007825032230
         H            5.824145237737     5.721095235173    -0.933989713397     1.007825032230
         C            7.197145237737     3.673095235173    -3.906989713397    12.000000000000
         C            5.785145237737     3.360095235173    -3.428989713397    12.000000000000
         C            5.678145237737     3.224095235173    -1.925989713397    12.000000000000
         S            5.366145237737     1.526095235173    -1.420989713397    31.972071174400
         C            6.935145237737     0.949095235173    -1.345989713397    12.000000000000
         H            7.889145237737     2.936095235173    -3.500989713397     1.007825032230
         H            7.228145237737     3.639095235173    -4.995989713397     1.007825032230
         H            7.485145237737     4.667095235173    -3.565989713397     1.007825032230
         H            5.111145237737     4.147095235173    -3.764989713397     1.007825032230
         H            5.449145237737     2.433095235173    -3.895989713397     1.007825032230
         H            6.600145237737     3.576095235173    -1.463989713397     1.007825032230
         H            4.875145237737     3.864095235173    -1.561989713397     1.007825032230
         H            6.967145237737    -0.070904764827    -1.729989713397     1.007825032230
         H            7.585145237737     1.583095235173    -1.948989713397     1.007825032230
         H            7.277145237737     0.959095235173    -0.310989713397     1.007825032230
         C           -1.751854762263    10.918095235173    -7.811989713397    12.000000000000
         C           -2.285854762263    10.526095235173    -6.437989713397    12.000000000000
         O           -1.742854762263     9.631095235173    -5.781989713397    15.994914619570
         H           -0.718854762263    10.585095235173    -7.915989713397     1.007825032230
         H           -2.347854762263    10.450095235173    -8.594989713397     1.007825032230
         H           -1.800854762263    12.003095235173    -7.898989713397     1.007825032230
         N           -3.352854762263    11.187095235173    -6.000989713397    14.003074004430
         C           -3.939854762263    10.890095235173    -4.703989713397    12.000000000000
         C           -5.437854762263    10.704095235173    -4.821989713397    12.000000000000
         O           -6.124854762263    11.564095235173    -5.360989713397    15.994914619570
         C           -3.655854762263    12.017095235173    -3.715989713397    12.000000000000
         C           -4.129854762263    11.688095235173    -2.317989713397    12.000000000000
         N           -3.206854762263    11.730095235173    -1.362989713397    14.003074004430
         O           -5.315854762263    11.396095235173    -2.090989713397    15.994914619570
         H           -3.823854762263    11.926095235173    -6.522989713397     1.007825032230
         H           -3.489854762263     9.967095235173    -4.340989713397     1.007825032230
         H           -2.584854762263    12.218095235173    -3.695989713397     1.007825032230
         H           -4.144854762263    12.929095235173    -4.057989713397     1.007825032230
         H           -3.460854762263    11.517095235173    -0.397989713397     1.007825032230
         H           -2.243854762263    11.975095235173    -1.594989713397     1.007825032230
         N           -5.938854762263     9.586095235173    -4.299989713397    14.003074004430
         C           -7.363854762263     9.279095235173    -4.356989713397    12.000000000000
         C           -7.699854762263     8.136095235173    -3.395989713397    12.000000000000
         C           -6.815854762263     6.931095235173    -3.575989713397    12.000000000000
         C           -6.256854762263     6.494095235173    -4.737989713397    12.000000000000
         C           -6.354854762263     6.045095235173    -2.552989713397    12.000000000000
         C           -5.512854762263     5.095095235173    -3.171989713397    12.000000000000
         C           -6.571854762263     5.961095235173    -1.171989713397    12.000000000000
         N           -5.470854762263     5.394095235173    -4.505989713397    14.003074004430
         C           -4.882854762263     4.074095235173    -2.458989713397    12.000000000000
         C           -5.942854762263     4.944095235173    -0.460989713397    12.000000000000
         C           -5.109854762263     4.013095235173    -1.107989713397    12.000000000000
         H           -7.939854762263    10.159095235173    -4.071989713397     1.007825032230
         H           -5.375854762263     8.876095235173    -3.830989713397     1.007825032230
         H           -7.602854762263     8.967095235173    -5.373989713397     1.007825032230
         H           -7.610854762263     8.495095235173    -2.369989713397     1.007825032230
         H           -8.738854762263     7.843095235173    -3.541989713397     1.007825032230
         H           -6.410854762263     6.949095235173    -5.704989713397     1.007825032230
         H           -4.941854762263     4.883095235173    -5.212989713397     1.007825032230
         H           -7.209854762263     6.671095235173    -0.669989713397     1.007825032230
         H           -4.240854762263     3.359095235173    -2.951989713397     1.007825032230
         H           -6.097854762263     4.866095235173     0.605010286603     1.007825032230
         H           -4.638854762263     3.233095235173    -0.527989713397     1.007825032230
         C           -5.266854762263    -4.335904764827    -4.362989713397    12.000000000000
         C           -4.168854762263    -4.114904764827    -3.329989713397    12.000000000000
         O           -3.474854762263    -3.112904764827    -3.351989713397    15.994914619570
         H           -5.026854762263    -5.158904764827    -5.035989713397     1.007825032230
         H           -5.393854762263    -3.446904764827    -4.979989713397     1.007825032230
         H           -6.172854762263    -4.534904764827    -3.791989713397     1.007825032230
         N           -4.031854762263    -5.079904764827    -2.421989713397    14.003074004430
         C           -2.999854762263    -5.030904764827    -1.396989713397    12.000000000000
         C           -3.287854762263    -4.309904764827    -0.088989713397    12.000000000000
         O           -2.358854762263    -3.973904764827     0.648010286603    15.994914619570
         H           -4.626854762263    -5.906904764827    -2.376989713397     1.007825032230
         H           -2.730854762263    -6.058904764827    -1.152989713397     1.007825032230
         H           -2.118854762263    -4.567904764827    -1.839989713397     1.007825032230
         N           -4.559854762263    -4.093904764827     0.220010286603    14.003074004430
         C           -4.933854762263    -3.386904764827     1.436010286603    12.000000000000
         C           -4.322854762263    -1.989904764827     1.412010286603    12.000000000000
         O           -3.599854762263    -1.593904764827     2.330010286603    15.994914619570
         C           -4.454854762263    -4.131904764827     2.683010286603    12.000000000000
         C           -5.081854762263    -3.586904764827     3.952010286603    12.000000000000
         N           -4.322854762263    -3.580904764827     5.040010286603    14.003074004430
         O           -6.240854762263    -3.167904764827     3.948010286603    15.994914619570
         H           -5.346854762263    -4.397904764827    -0.353989713397     1.007825032230
         H           -6.020854762263    -3.323904764827     1.475010286603     1.007825032230
         H           -4.695854762263    -5.190904764827     2.588010286603     1.007825032230
         H           -3.369854762263    -4.056904764827     2.755010286603     1.007825032230
         H           -4.693854762263    -3.219904764827     5.919010286603     1.007825032230
         H           -3.367854762263    -3.937904764827     4.998010286603     1.007825032230
         N           -4.609854762263    -1.253904764827     0.342010286603    14.003074004430
         C           -4.091854762263     0.094095235173     0.174010286603    12.000000000000
         C           -3.751854762263     0.348095235173    -1.294989713397    12.000000000000
         O           -2.771854762263    -0.568904764827    -1.752989713397    15.994914619570
         H           -4.830854762263     0.836095235173     0.478010286603     1.007825032230
         H           -5.201854762263    -1.573904764827    -0.424989713397     1.007825032230
         H           -3.192854762263     0.168095235173     0.786010286603     1.007825032230
         H           -4.652854762263     0.257095235173    -1.901989713397     1.007825032230
         H           -3.386854762263     1.368095235173    -1.416989713397     1.007825032230
         H           -3.208854762263    -1.301904764827    -2.233989713397     1.007825032230
         C           -4.568854762263     3.655095235173     4.742010286603    12.000000000000
         C           -5.253854762263     4.983095235173     5.014010286603    12.000000000000
         O           -4.876854762263     5.701095235173     5.940010286603    15.994914619570
         C           -3.428854762263     3.864095235173     3.741010286603    12.000000000000
         C           -2.360854762263     2.811095235173     3.802010286603    12.000000000000
         C           -2.150854762263     1.720095235173     3.034010286603    12.000000000000
         N           -1.349854762263     2.821095235173     4.737010286603    14.003074004430
         C           -0.562854762263     1.778095235173     4.543010286603    12.000000000000
         N           -1.025854762263     1.094095235173     3.516010286603    14.003074004430
         H           -5.291854762263     2.952095235173     4.328010286603     1.007825032230
         H           -4.166854762263     3.255095235173     5.673010286603     1.007825032230
         H           -3.814854762263     3.858095235173     2.722010286603     1.007825032230
         H           -2.938854762263     4.817095235173     3.937010286603     1.007825032230
         H           -1.238854762263     3.525095235173     5.454010286603     1.007825032230
         H           -2.681854762263     1.303095235173     2.179010286603     1.007825032230
         H            0.300145237737     1.608095235173     5.186010286603     1.007825032230
         N           -6.275854762263     5.296095235173     4.219010286603    14.003074004430
         C           -6.999854762263     6.557095235173     4.375010286603    12.000000000000
         C           -8.077854762263     6.683095235173     3.297010286603    12.000000000000
         C           -8.245854762263     8.047095235173     2.632010286603    12.000000000000
         C           -6.904854762263     8.726095235173     2.463010286603    12.000000000000
         C           -8.898854762263     7.851095235173     1.289010286603    12.000000000000
         H           -7.467854762263     6.585095235173     5.359010286603     1.007825032230
         H           -6.297854762263     7.385095235173     4.275010286603     1.007825032230
         H           -6.619854762263     4.699095235173     3.467010286603     1.007825032230
         H           -7.862854762263     5.952095235173     2.518010286603     1.007825032230
         H           -9.034854762263     6.404095235173     3.740010286603     1.007825032230
         H           -8.869854762263     8.683095235173     3.261010286603     1.007825032230
         H           -7.045854762263     9.697095235173     1.987010286603     1.007825032230
         H           -6.441854762263     8.864095235173     3.440010286603     1.007825032230
         H           -6.259854762263     8.107095235173     1.840010286603     1.007825032230
         H           -9.024854762263     8.818095235173     0.802010286603     1.007825032230
         H           -8.268854762263     7.212095235173     0.669010286603     1.007825032230
         H           -9.872854762263     7.382095235173     1.423010286603     1.007825032230
         C           -7.690854762263    -6.780904764827     5.109010286603    12.000000000000
         C           -6.671854762263    -6.331904764827     6.154010286603    12.000000000000
         C           -5.236854762263    -6.710904764827     5.857010286603    12.000000000000
         C           -4.377854762263    -6.557904764827     7.103010286603    12.000000000000
         N           -2.949854762263    -6.535904764827     6.806010286603    14.003074004430
         C           -2.139854762263    -7.571904764827     6.991010286603    12.000000000000
         N           -2.623854762263    -8.710904764827     7.472010286603    14.003074004430
         N           -0.846854762263    -7.464904764827     6.711010286603    14.003074004430
         H           -7.239854762263    -6.734904764827     4.118010286603     1.007825032230
         H           -8.558854762263    -6.122904764827     5.143010286603     1.007825032230
         H           -8.001854762263    -7.803904764827     5.320010286603     1.007825032230
         H           -6.731854762263    -5.247904764827     6.255010286603     1.007825032230
         H           -6.951854762263    -6.756904764827     7.118010286603     1.007825032230
         H           -5.191854762263    -7.739904764827     5.501010286603     1.007825032230
         H           -4.845854762263    -6.080904764827     5.058010286603     1.007825032230
         H           -4.651854762263    -5.635904764827     7.617010286603     1.007825032230
         H           -4.588854762263    -7.378904764827     7.788010286603     1.007825032230
         H           -2.549854762263    -5.673904764827     6.434010286603     1.007825032230
         H           -3.615854762263    -8.788904764827     7.698010286603     1.007825032230
         H           -2.003854762263    -9.506904764827     7.615010286603     1.007825032230
         H           -0.473854762263    -6.585904764827     6.353010286603     1.007825032230
         H           -0.226854762263    -8.261904764827     6.854010286603     1.007825032230
         C            2.905145237737   -10.647904764827     1.245010286603    12.000000000000
         C            2.910145237737    -9.528904764827     2.288010286603    12.000000000000
         C            2.184145237737    -8.292904764827     1.805010286603    12.000000000000
         C            0.851145237737    -8.058904764827     2.150010286603    12.000000000000
         C            2.816145237737    -7.375904764827     0.961010286603    12.000000000000
         C            0.167145237737    -6.940904764827     1.665010286603    12.000000000000
         C            2.145145237737    -6.257904764827     0.470010286603    12.000000000000
         C            0.824145237737    -6.047904764827     0.825010286603    12.000000000000
         O            0.162145237737    -4.935904764827     0.358010286603    15.994914619570
         H            3.504145237737   -11.483904764827     1.605010286603     1.007825032230
         H            1.881145237737   -10.980904764827     1.073010286603     1.007825032230
         H            3.327145237737   -10.275904764827     0.311010286603     1.007825032230
         H            2.442145237737    -9.888904764827     3.205010286603     1.007825032230
         H            3.939145237737    -9.270904764827     2.536010286603     1.007825032230
         H            0.341145237737    -8.751904764827     2.802010286603     1.007825032230
         H            3.847145237737    -7.536904764827     0.683010286603     1.007825032230
         H           -0.863854762263    -6.772904764827     1.938010286603     1.007825032230
         H            2.651145237737    -5.561904764827    -0.181989713397     1.007825032230
         H           -0.748854762263    -4.921904764827     0.720010286603     1.007825032230
         C            6.665145237737    -4.700904764827    10.692010286603    12.000000000000
         C            6.528145237737    -4.532904764827     9.179010286603    12.000000000000
         C            5.121145237737    -4.280904764827     8.703010286603    12.000000000000
         C            4.564145237737    -3.006904764827     8.764010286603    12.000000000000
         C            4.347145237737    -5.314904764827     8.185010286603    12.000000000000
         C            3.270145237737    -2.766904764827     8.319010286603    12.000000000000
         C            3.050145237737    -5.084904764827     7.736010286603    12.000000000000
         C            2.523145237737    -3.806904764827     7.809010286603    12.000000000000
         O            1.253145237737    -3.562904764827     7.367010286603    15.994914619570
         H            5.674145237737    -4.730904764827    11.146010286603     1.007825032230
         H            7.193145237737    -5.629904764827    10.909010286603     1.007825032230
         H            7.226145237737    -3.860904764827    11.101010286603     1.007825032230
         H            7.160145237737    -3.703904764827     8.860010286603     1.007825032230
         H            6.908145237737    -5.429904764827     8.691010286603     1.007825032230
         H            5.148145237737    -2.190904764827     9.164010286603     1.007825032230
         H            4.760145237737    -6.311904764827     8.130010286603     1.007825032230
         H            2.852145237737    -1.771904764827     8.372010286603     1.007825032230
         H            2.460145237737    -5.895904764827     7.337010286603     1.007825032230
         H            0.879145237737    -4.380904764827     6.977010286603     1.007825032230
         C           -5.059854762263     1.564095235173     8.588010286603    12.000000000000
         C           -5.100854762263     0.118095235173     8.093010286603    12.000000000000
         C           -3.777854762263    -0.385904764827     7.578010286603    12.000000000000
         C           -3.437854762263    -0.264904764827     6.229010286603    12.000000000000
         C           -2.853854762263    -0.955904764827     8.439010286603    12.000000000000
         C           -2.204854762263    -0.695904764827     5.758010286603    12.000000000000
         C           -1.617854762263    -1.389904764827     7.977010286603    12.000000000000
         C           -1.300854762263    -1.252904764827     6.640010286603    12.000000000000
         O           -0.062854762263    -1.643904764827     6.202010286603    15.994914619570
         H           -6.076854762263     1.921095235173     8.754010286603     1.007825032230
         H           -4.499854762263     1.613095235173     9.522010286603     1.007825032230
         H           -4.572854762263     2.190095235173     7.840010286603     1.007825032230
         H           -5.430854762263    -0.525904764827     8.908010286603     1.007825032230
         H           -5.842854762263     0.036095235173     7.300010286603     1.007825032230
         H           -4.145854762263     0.171095235173     5.540010286603     1.007825032230
         H           -3.098854762263    -1.063904764827     9.485010286603     1.007825032230
         H           -1.955854762263    -0.596904764827     4.712010286603     1.007825032230
         H           -0.908854762263    -1.832904764827     8.660010286603     1.007825032230
         H            0.406145237737    -2.113904764827     6.923010286603     1.007825032230
         C            1.168145237737    -2.838904764827    -3.498989713397    12.000000000000
         C            1.365145237737    -4.313904764827    -3.346989713397    12.000000000000
         O            0.402145237737    -5.072904764827    -3.554989713397    15.994914619570
         C            1.457145237737    -2.190904764827    -2.153989713397    12.000000000000
         C            0.514145237737    -1.084904764827    -1.855989713397    12.000000000000
         S            0.745145237737    -0.269904764827    -0.268989713397    31.972071174400
         C            0.195145237737    -1.473904764827     0.949010286603    12.000000000000
         C           -0.475854762263     0.972095235173    -0.224989713397    12.000000000000
         C           -0.242854762263     2.119095235173    -1.176989713397    12.000000000000
         O           -1.330854762263     3.052095235173    -1.033989713397    15.994914619570
         C            0.991145237737     2.947095235173    -0.834989713397    12.000000000000
         O            1.980145237737     2.595095235173    -1.838989713397    15.994914619570
         C            0.582145237737     4.394095235173    -1.010989713397    12.000000000000
         O            1.396145237737     5.284095235173    -1.729989713397    15.994914619570
         C           -0.873854762263     4.279095235173    -1.506989713397    12.000000000000
         O            2.544145237737    -4.651904764827    -2.999989713397    15.994914619570
         N           -3.767854762263     8.306095235173    -2.915989713397    14.003074004430
         C           -3.013854762263     7.441095235173    -3.638989713397    12.000000000000
         N           -2.274854762263     6.404095235173    -3.182989713397    14.003074004430
         C           -2.348854762263     6.278095235173    -1.818989713397    12.000000000000
         C           -3.077854762263     7.084095235173    -0.951989713397    12.000000000000
         C           -3.818854762263     8.143095235173    -1.546989713397    12.000000000000
         N           -4.572854762263     8.999095235173    -0.815989713397    14.003074004430
         N           -2.921854762263     6.667095235173     0.362010286603    14.003074004430
         C           -2.122854762263     5.635095235173     0.268010286603    12.000000000000
         N           -1.732854762263     5.341095235173    -1.016989713397    14.003074004430
         N           -0.236854762263    -2.559904764827    -3.916989713397    14.003074004430
         H           -4.614854762263     8.912095235173     0.039010286603     1.007825032230
         H           -5.008854762263     9.629095235173    -1.206989713397     1.007825032230
         H            1.763145237737    -2.480904764827    -4.175989713397     1.007825032230
         H            2.365145237737    -1.850904764827    -2.147989713397     1.007825032230
         H            1.400145237737    -2.860904764827    -1.453989713397     1.007825032230
         H           -0.389854762263    -1.433904764827    -1.892989713397     1.007825032230
         H            0.590145237737    -0.418904764827    -2.556989713397     1.007825032230
         H            0.051145237737    -2.329904764827     0.516010286603     1.007825032230
         H           -0.633854762263    -1.171904764827     1.351010286603     1.007825032230
         H            0.871145237737    -1.569904764827     1.638010286603     1.007825032230
         H            1.640145237737     4.923095235173    -2.447989713397     1.007825032230
         H            1.718145237737     2.855095235173    -2.593989713397     1.007825032230
         H           -1.794854762263     5.059095235173     1.133010286603     1.007825032230
         H           -0.138854762263     1.673095235173    -2.165989713397     1.007825032230
         H            1.379145237737     2.781095235173     0.170010286603     1.007825032230
         H            0.706145237737     4.918095235173    -0.062989713397     1.007825032230
         H           -0.899854762263     4.361095235173    -2.593989713397     1.007825032230
         H           -3.001854762263     7.601095235173    -4.716989713397     1.007825032230
         H           -0.599854762263    -3.350904764827    -4.428989713397     1.007825032230
         H           -0.256854762263    -1.738904764827    -4.504989713397     1.007825032230
         H           -0.805854762263    -2.399904764827    -3.097989713397     1.007825032230
         H           -0.530854762263     1.323095235173     0.678010286603     1.007825032230
         H           -1.335854762263     0.570095235173    -0.425989713397     1.007825032230

  Running in c1 symmetry.

  Rotational constants: A =      0.00020  B =      0.00011  C =      0.00009 [cm^-1]
  Rotational constants: A =      5.85278  B =      3.20472  C =      2.79910 [MHz]
  Nuclear repulsion = 73221.126837688061642

  Charge       = 1
  Multiplicity = 1
  Electrons    = 1554
  Nalpha       = 777
  Nbeta        = 777

  ==> Algorithm <==

  SCF Algorithm Type is DF.
  DIIS enabled.
  MOM disabled.
  Fractional occupation disabled.
  Guess Type is SAD.
  Energy threshold   = 1.00e-08
  Density threshold  = 1.00e-08
  Integral threshold = 1.00e-12

  ==> Primary Basis <==

  Basis Set: JUN-CC-PVDZ
    Blend: JUN-CC-PVDZ
    Number of shells: 2315
    Number of basis functions: 4807
    Number of Cartesian functions: 5010
    Spherical Harmonics?: true
    Max angular momentum: 2

   => Loading Basis Set <=

    Name: JUN-CC-PVDZ-JKFIT
    Role: JKFIT
    Keyword: DF_BASIS_SCF
    atoms 1, 36, 71, 93, 95-96, 117, 124, 155, 165, 196, 202, 210, 218, 239, 246, 252, 260, 276, 278, 286, 308, 310-311, 399, 401, 405-406, 408-409                                                                                                                                                                                                                                       entry N          line   202 file /home/ndyonker/git/psi4/objdir/stage/share/psi4/basis/jun-cc-pvdz-jkfit.gbs 
    atoms 2-3, 10-17, 29-35, 37-39, 51-52, 54-60, 72-76, 89-92, 94, 111-112, 118-119, 125, 130-133, 144-145, 147-148, 156-157, 159, 166-167, 175-177, 179, 190-191, 197-198, 200-201, 211-217, 219-221, 233-234, 240-241, 247-248, 250-251, 261-262, 270-271, 273-275, 277, 287-291, 304-307, 309, 326-333, 345-352, 364-371, 383-384, 386-387, 389-391, 393, 395, 397, 400, 402-404, 407 entry C          line   146 file /home/ndyonker/git/psi4/objdir/stage/share/psi4/basis/jun-cc-pvdz-jkfit.gbs 
    atoms 4-5, 18, 53, 61, 113, 120, 146, 149-150, 158, 168, 192, 199, 203, 235, 242, 249, 253, 263, 272, 334, 353, 372, 385, 392, 394, 396, 398                                                                                                                                                                                                                                          entry O          line   258 file /home/ndyonker/git/psi4/objdir/stage/share/psi4/basis/jun-cc-pvdz-jkfit.gbs 
    atoms 6-9, 19-28, 40-50, 62-70, 77-88, 97-110, 114-116, 121-123, 126-129, 134-143, 151-154, 160-164, 169-174, 180-189, 193-195, 204-209, 222-232, 236-238, 243-245, 254-259, 264-269, 279-285, 292-303, 312-325, 335-344, 354-363, 373-382, 410-432                                                                                                                                   entry H          line    70 file /home/ndyonker/git/psi4/objdir/stage/share/psi4/basis/jun-cc-pvdz-jkfit.gbs 
    atoms 178, 388                                                                                                                                                                                                                                                                                                                                                                        entry S          line   666 file /home/ndyonker/git/psi4/objdir/stage/share/psi4/basis/jun-cc-pvdz-jkfit.gbs 

  ==> Integral Setup <==

  ==> DiskDFJK: Density-Fitted J/K Matrices <==

    J tasked:                  Yes
    K tasked:                  Yes
    wK tasked:                  No
    OpenMP threads:             10
    Integrals threads:          10
    Memory [MiB]:            85830
    Algorithm:                Disk
    Integral Cache:           NONE
    Schwarz Cutoff:          1E-12
    Fitting Condition:       1E-10

   => Auxiliary Basis Set <=

  Basis Set: JUN-CC-PVDZ-JKFIT
    Blend: JUN-CC-PVDZ-JKFIT
    Number of shells: 7566
    Number of basis functions: 21388
    Number of Cartesian functions: 24296
    Spherical Harmonics?: true
    Max angular momentum: 3

  Minimum eigenvalue in the overlap matrix is 1.3259697543E-07.
  Reciprocal condition number of the overlap matrix is 6.3149068563E-09.
    Using symmetric orthogonalization.

  ==> Pre-Iterations <==

  SCF Guess: Superposition of Atomic Densities via on-the-fly atomic UHF (no occupation information).

   -------------------------
    Irrep   Nso     Nmo    
   -------------------------
     A       4807    4807 
   -------------------------
    Total    4807    4807
   -------------------------

  ==> Iterations <==

                           Total Energy        Delta E     RMS |[F,P]|

   @DF-RHF iter SAD: -10110.04532362667305   -1.01100e+04   0.00000e+00 
   @DF-RHF iter   1: -10104.28906699400977    5.75626e+00   6.98549e-04 DIIS
   @DF-RHF iter   2: -10109.39179251530368   -5.10273e+00   3.58562e-04 DIIS
   @DF-RHF iter   3: -10110.65743586174722   -1.26564e+00   8.55686e-05 DIIS
   @DF-RHF iter   4: -10110.75271823566072   -9.52824e-02   3.62453e-05 DIIS
   @DF-RHF iter   5: -10110.76966625026944   -1.69480e-02   7.26400e-06 DIIS
   @DF-RHF iter   6: -10110.77064574658834   -9.79496e-04   3.67623e-06 DIIS
   @DF-RHF iter   7: -10110.77090187239446   -2.56126e-04   1.28586e-06 DIIS
   @DF-RHF iter   8: -10110.77094490024683   -4.30279e-05   5.57328e-07 DIIS
   @DF-RHF iter   9: -10110.77095624212416   -1.13419e-05   2.33589e-07 DIIS
   @DF-RHF iter  10: -10110.77095838034438   -2.13822e-06   9.34545e-08 DIIS
   @DF-RHF iter  11: -10110.77095871150050   -3.31156e-07   4.14194e-08 DIIS
   @DF-RHF iter  12: -10110.77095878278669   -7.12862e-08   1.96860e-08 DIIS
   @DF-RHF iter  13: -10110.77095880338675   -2.06001e-08   8.61324e-09 DIIS
   @DF-RHF iter  14: -10110.77095880579145   -2.40470e-09   3.81869e-09 DIIS
  Energy and wave function converged.


  ==> Post-Iterations <==

    Orbital Energies [Eh]
    ---------------------

    Doubly Occupied:                                                      

       1A    -92.163953     2A    -91.953950     3A    -20.675071  
       4A    -20.674362     5A    -20.668190     6A    -20.657208  
       7A    -20.655112     8A    -20.631181     9A    -20.629944  
      10A    -20.622457    11A    -20.616301    12A    -20.611372  
      13A    -20.610614    14A    -20.607177    15A    -20.603688  
      16A    -20.602978    17A    -20.586901    18A    -20.585781  
      19A    -20.579473    20A    -20.572886    21A    -20.570941  
      22A    -20.569840    23A    -20.564492    24A    -20.558623  
      25A    -20.555816    26A    -20.540008    27A    -20.534337  
      28A    -20.529115    29A    -20.507019    30A    -20.506217  
      31A    -20.487579    32A    -15.806357    33A    -15.745271  
      34A    -15.732367    35A    -15.726201    36A    -15.724548  
      37A    -15.717579    38A    -15.712095    39A    -15.689966  
      40A    -15.682752    41A    -15.682433    42A    -15.681101  
      43A    -15.674186    44A    -15.670675    45A    -15.660982  
      46A    -15.646874    47A    -15.644168    48A    -15.636086  
      49A    -15.636067    50A    -15.626214    51A    -15.626106  
      52A    -15.620437    53A    -15.617733    54A    -15.609431  
      55A    -15.604420    56A    -15.600414    57A    -15.591251  
      58A    -15.584095    59A    -15.573765    60A    -15.570726  
      61A    -15.543606    62A    -11.528569    63A    -11.503706  
      64A    -11.495689    65A    -11.492003    66A    -11.461577  
      67A    -11.448623    68A    -11.447644    69A    -11.418105  
      70A    -11.416782    71A    -11.409140    72A    -11.405400  
      73A    -11.402590    74A    -11.397988    75A    -11.397762  
      76A    -11.396439    77A    -11.394758    78A    -11.391017  
      79A    -11.390704    80A    -11.389207    81A    -11.386786  
      82A    -11.385924    83A    -11.385234    84A    -11.378710  
      85A    -11.369665    86A    -11.369569    87A    -11.367577  
      88A    -11.366661    89A    -11.364159    90A    -11.364050  
      91A    -11.363621    92A    -11.362750    93A    -11.357486  
      94A    -11.356670    95A    -11.355124    96A    -11.350065  
      97A    -11.343297    98A    -11.343141    99A    -11.342403  
     100A    -11.339298   101A    -11.335416   102A    -11.332852  
     103A    -11.329684   104A    -11.328859   105A    -11.328538  
     106A    -11.328451   107A    -11.324624   108A    -11.323660  
     109A    -11.321309   110A    -11.320229   111A    -11.317407  
     112A    -11.316040   113A    -11.315362   114A    -11.315050  
     115A    -11.314389   116A    -11.311550   117A    -11.308817  
     118A    -11.304411   119A    -11.302958   120A    -11.301934  
     121A    -11.301717   122A    -11.301333   123A    -11.301174  
     124A    -11.300277   125A    -11.299716   126A    -11.299256  
     127A    -11.298264   128A    -11.297768   129A    -11.296406  
     130A    -11.295590   131A    -11.293997   132A    -11.292911  
     133A    -11.291210   134A    -11.290892   135A    -11.290760  
     136A    -11.290516   137A    -11.290051   138A    -11.289276  
     139A    -11.287982   140A    -11.287907   141A    -11.287754  
     142A    -11.286574   143A    -11.286046   144A    -11.285920  
     145A    -11.284707   146A    -11.283631   147A    -11.282797  
     148A    -11.282095   149A    -11.279355   150A    -11.278216  
     151A    -11.277238   152A    -11.276959   153A    -11.276432  
     154A    -11.276147   155A    -11.275793   156A    -11.275452  
     157A    -11.274829   158A    -11.273347   159A    -11.273328  
     160A    -11.273170   161A    -11.272956   162A    -11.272179  
     163A    -11.272127   164A    -11.272049   165A    -11.271781  
     166A    -11.271437   167A    -11.271362   168A    -11.271197  
     169A    -11.271074   170A    -11.270612   171A    -11.270491  
     172A    -11.268613   173A    -11.268370   174A    -11.267731  
     175A    -11.267391   176A    -11.267313   177A    -11.267307  
     178A    -11.267075   179A    -11.267037   180A    -11.266859  
     181A    -11.265551   182A    -11.265201   183A    -11.264983  
     184A    -11.264230   185A    -11.263203   186A    -11.262489  
     187A    -11.261474   188A    -11.260615   189A    -11.259063  
     190A    -11.257804   191A    -11.257046   192A    -11.256951  
     193A    -11.256349   194A    -11.256291   195A    -11.255854  
     196A    -11.255656   197A    -11.252637   198A    -11.251114  
     199A    -11.248147   200A    -11.241778   201A    -11.238987  
     202A    -11.237344   203A    -11.231867   204A     -9.166136  
     205A     -8.960615   206A     -6.847826   207A     -6.847492  
     208A     -6.845449   209A     -6.643052   210A     -6.641270  
     211A     -6.639124   212A     -1.540860   213A     -1.520138  
     214A     -1.507716   215A     -1.507187   216A     -1.481364  
     217A     -1.476965   218A     -1.475340   219A     -1.468354  
     220A     -1.465643   221A     -1.454142   222A     -1.453735  
     223A     -1.446640   224A     -1.440574   225A     -1.439356  
     226A     -1.438743   227A     -1.430584   228A     -1.430544  
     229A     -1.428898   230A     -1.423776   231A     -1.422442  
     232A     -1.419586   233A     -1.417312   234A     -1.414615  
     235A     -1.413173   236A     -1.411846   237A     -1.403810  
     238A     -1.403791   239A     -1.394410   240A     -1.393766  
     241A     -1.389271   242A     -1.370542   243A     -1.367476  
     244A     -1.365226   245A     -1.354397   246A     -1.349456  
     247A     -1.348919   248A     -1.347988   249A     -1.346496  
     250A     -1.344576   251A     -1.332232   252A     -1.325591  
     253A     -1.321002   254A     -1.309318   255A     -1.305158  
     256A     -1.300499   257A     -1.300280   258A     -1.290885  
     259A     -1.288543   260A     -1.279011   261A     -1.274779  
     262A     -1.267212   263A     -1.265244   264A     -1.259589  
     265A     -1.258049   266A     -1.252361   267A     -1.248805  
     268A     -1.230103   269A     -1.228859   270A     -1.213602  
     271A     -1.210372   272A     -1.199454   273A     -1.198372  
     274A     -1.196889   275A     -1.191139   276A     -1.189739  
     277A     -1.188900   278A     -1.186956   279A     -1.185788  
     280A     -1.180400   281A     -1.176472   282A     -1.170081  
     283A     -1.163315   284A     -1.155876   285A     -1.151290  
     286A     -1.151169   287A     -1.145404   288A     -1.141545  
     289A     -1.136252   290A     -1.133336   291A     -1.133075  
     292A     -1.132559   293A     -1.115284   294A     -1.113064  
     295A     -1.112050   296A     -1.109425   297A     -1.108330  
     298A     -1.098110   299A     -1.097089   300A     -1.096025  
     301A     -1.093794   302A     -1.091376   303A     -1.090632  
     304A     -1.084954   305A     -1.083623   306A     -1.081218  
     307A     -1.071938   308A     -1.068216   309A     -1.066457  
     310A     -1.064778   311A     -1.064112   312A     -1.062555  
     313A     -1.060533   314A     -1.058370   315A     -1.054322  
     316A     -1.050719   317A     -1.050611   318A     -1.049592  
     319A     -1.047590   320A     -1.045324   321A     -1.035839  
     322A     -1.034175   323A     -1.033854   324A     -1.031546  
     325A     -1.025142   326A     -1.019972   327A     -1.018725  
     328A     -1.017294   329A     -1.016444   330A     -1.016303  
     331A     -1.013845   332A     -1.009544   333A     -0.998619  
     334A     -0.997658   335A     -0.996321   336A     -0.990203  
     337A     -0.989373   338A     -0.984815   339A     -0.981982  
     340A     -0.980590   341A     -0.978787   342A     -0.973680  
     343A     -0.967750   344A     -0.964030   345A     -0.963605  
     346A     -0.953068   347A     -0.950048   348A     -0.948432  
     349A     -0.946846   350A     -0.943661   351A     -0.933985  
     352A     -0.933131   353A     -0.929964   354A     -0.926797  
     355A     -0.925466   356A     -0.919195   357A     -0.918674  
     358A     -0.917794   359A     -0.915431   360A     -0.911259  
     361A     -0.909523   362A     -0.903860   363A     -0.903306  
     364A     -0.900618   365A     -0.899917   366A     -0.897719  
     367A     -0.897411   368A     -0.896372   369A     -0.895090  
     370A     -0.894200   371A     -0.893750   372A     -0.893302  
     373A     -0.891814   374A     -0.888802   375A     -0.881447  
     376A     -0.880157   377A     -0.879838   378A     -0.878506  
     379A     -0.876462   380A     -0.874352   381A     -0.873180  
     382A     -0.872109   383A     -0.864179   384A     -0.861371  
     385A     -0.861064   386A     -0.858279   387A     -0.854976  
     388A     -0.853754   389A     -0.852582   390A     -0.852054  
     391A     -0.850681   392A     -0.846146   393A     -0.845008  
     394A     -0.842125   395A     -0.837930   396A     -0.837770  
     397A     -0.837031   398A     -0.835422   399A     -0.835054  
     400A     -0.834914   401A     -0.831218   402A     -0.830309  
     403A     -0.828012   404A     -0.827962   405A     -0.827404  
     406A     -0.826325   407A     -0.823378   408A     -0.821465  
     409A     -0.818132   410A     -0.816756   411A     -0.814024  
     412A     -0.812917   413A     -0.808380   414A     -0.807682  
     415A     -0.806840   416A     -0.806217   417A     -0.804823  
     418A     -0.801731   419A     -0.799752   420A     -0.797937  
     421A     -0.792416   422A     -0.787499   423A     -0.786826  
     424A     -0.785563   425A     -0.781856   426A     -0.781626  
     427A     -0.779572   428A     -0.778715   429A     -0.778210  
     430A     -0.774310   431A     -0.771523   432A     -0.770991  
     433A     -0.770665   434A     -0.769164   435A     -0.767865  
     436A     -0.766653   437A     -0.765581   438A     -0.764632  
     439A     -0.764211   440A     -0.763160   441A     -0.758832  
     442A     -0.756434   443A     -0.754772   444A     -0.753866  
     445A     -0.752033   446A     -0.751151   447A     -0.748342  
     448A     -0.744092   449A     -0.742894   450A     -0.739211  
     451A     -0.738701   452A     -0.737734   453A     -0.737355  
     454A     -0.734959   455A     -0.733405   456A     -0.731034  
     457A     -0.729929   458A     -0.729203   459A     -0.727909  
     460A     -0.725327   461A     -0.724704   462A     -0.724396  
     463A     -0.722652   464A     -0.722581   465A     -0.718549  
     466A     -0.718092   467A     -0.716557   468A     -0.716023  
     469A     -0.715508   470A     -0.713587   471A     -0.713077  
     472A     -0.710860   473A     -0.710234   474A     -0.708667  
     475A     -0.707982   476A     -0.707226   477A     -0.706111  
     478A     -0.706061   479A     -0.705026   480A     -0.703984  
     481A     -0.703057   482A     -0.702950   483A     -0.702508  
     484A     -0.701526   485A     -0.700465   486A     -0.699062  
     487A     -0.698782   488A     -0.698200   489A     -0.697769  
     490A     -0.694921   491A     -0.693861   492A     -0.691804  
     493A     -0.690726   494A     -0.689980   495A     -0.689792  
     496A     -0.688242   497A     -0.686899   498A     -0.686396  
     499A     -0.683666   500A     -0.682861   501A     -0.682381  
     502A     -0.681667   503A     -0.680390   504A     -0.679953  
     505A     -0.679047   506A     -0.678782   507A     -0.677362  
     508A     -0.675793   509A     -0.675085   510A     -0.674527  
     511A     -0.674000   512A     -0.672876   513A     -0.672614  
     514A     -0.672134   515A     -0.670753   516A     -0.669731  
     517A     -0.668539   518A     -0.666962   519A     -0.666146  
     520A     -0.664614   521A     -0.663054   522A     -0.662435  
     523A     -0.661552   524A     -0.661243   525A     -0.660267  
     526A     -0.659711   527A     -0.659208   528A     -0.658729  
     529A     -0.657828   530A     -0.656257   531A     -0.655562  
     532A     -0.655406   533A     -0.654635   534A     -0.653459  
     535A     -0.652744   536A     -0.652505   537A     -0.651621  
     538A     -0.651375   539A     -0.650019   540A     -0.649185  
     541A     -0.648679   542A     -0.648373   543A     -0.647800  
     544A     -0.646748   545A     -0.645387   546A     -0.644912  
     547A     -0.643841   548A     -0.642698   549A     -0.641256  
     550A     -0.640883   551A     -0.638389   552A     -0.637742  
     553A     -0.637190   554A     -0.636982   555A     -0.636135  
     556A     -0.635514   557A     -0.634517   558A     -0.634090  
     559A     -0.633791   560A     -0.632666   561A     -0.632350  
     562A     -0.631907   563A     -0.631223   564A     -0.630150  
     565A     -0.629322   566A     -0.629074   567A     -0.628643  
     568A     -0.627854   569A     -0.627548   570A     -0.626593  
     571A     -0.625163   572A     -0.623839   573A     -0.623120  
     574A     -0.622528   575A     -0.621866   576A     -0.620369  
     577A     -0.619470   578A     -0.619419   579A     -0.618892  
     580A     -0.618044   581A     -0.616802   582A     -0.614398  
     583A     -0.613769   584A     -0.613127   585A     -0.612532  
     586A     -0.612305   587A     -0.611147   588A     -0.610719  
     589A     -0.610456   590A     -0.609635   591A     -0.607061  
     592A     -0.604753   593A     -0.604680   594A     -0.603325  
     595A     -0.602470   596A     -0.601078   597A     -0.600465  
     598A     -0.599679   599A     -0.598492   600A     -0.598360  
     601A     -0.598156   602A     -0.597535   603A     -0.597440  
     604A     -0.595239   605A     -0.594764   606A     -0.593796  
     607A     -0.593507   608A     -0.592436   609A     -0.591154  
     610A     -0.590986   611A     -0.590409   612A     -0.588445  
     613A     -0.586392   614A     -0.584606   615A     -0.584343  
     616A     -0.583270   617A     -0.582441   618A     -0.581848  
     619A     -0.581504   620A     -0.581307   621A     -0.578038  
     622A     -0.577293   623A     -0.577082   624A     -0.576151  
     625A     -0.575739   626A     -0.573780   627A     -0.573533  
     628A     -0.571845   629A     -0.571441   630A     -0.570113  
     631A     -0.569430   632A     -0.568949   633A     -0.568843  
     634A     -0.568075   635A     -0.567702   636A     -0.567342  
     637A     -0.566833   638A     -0.565297   639A     -0.564941  
     640A     -0.562434   641A     -0.562283   642A     -0.561587  
     643A     -0.560948   644A     -0.559687   645A     -0.558829  
     646A     -0.557676   647A     -0.556790   648A     -0.555692  
     649A     -0.555572   650A     -0.555536   651A     -0.553724  
     652A     -0.553107   653A     -0.551317   654A     -0.551223  
     655A     -0.548604   656A     -0.548072   657A     -0.547647  
     658A     -0.547194   659A     -0.547086   660A     -0.545783  
     661A     -0.544964   662A     -0.542733   663A     -0.542166  
     664A     -0.541288   665A     -0.539873   666A     -0.539031  
     667A     -0.536102   668A     -0.535428   669A     -0.535118  
     670A     -0.532557   671A     -0.531943   672A     -0.530799  
     673A     -0.530656   674A     -0.529932   675A     -0.528511  
     676A     -0.527875   677A     -0.527788   678A     -0.526942  
     679A     -0.526716   680A     -0.525675   681A     -0.525462  
     682A     -0.524915   683A     -0.524273   684A     -0.523910  
     685A     -0.523379   686A     -0.523152   687A     -0.522177  
     688A     -0.521793   689A     -0.521424   690A     -0.519182  
     691A     -0.518629   692A     -0.517781   693A     -0.516965  
     694A     -0.515978   695A     -0.514486   696A     -0.514074  
     697A     -0.513926   698A     -0.512337   699A     -0.511290  
     700A     -0.510944   701A     -0.509990   702A     -0.509839  
     703A     -0.509569   704A     -0.507701   705A     -0.507601  
     706A     -0.507218   707A     -0.505339   708A     -0.504987  
     709A     -0.504417   710A     -0.504312   711A     -0.502622  
     712A     -0.502283   713A     -0.501589   714A     -0.500947  
[...]
    4316    2.775162  4317    2.776362  4318    2.777812  
    4319    2.779415  4320    2.780176  4321    2.781411  
    4322    2.782532  4323    2.782978  4324    2.783415  
    4325    2.784568  4326    2.786140  4327    2.786931  
    4328    2.787261  4329    2.788656  4330    2.789341  
    4331    2.792245  4332    2.792868  4333    2.793110  
    4334    2.795590  4335    2.796964  4336    2.797884  
    4337    2.798909  4338    2.799600  4339    2.800417  
    4340    2.800531  4341    2.802269  4342    2.803156  
    4343    2.803404  4344    2.804760  4345    2.807211  
    4346    2.807697  4347    2.809139  4348    2.810417  
    4349    2.812626  4350    2.814502  4351    2.815571  
    4352    2.817249  4353    2.818362  4354    2.819394  
    4355    2.820609  4356    2.821796  4357    2.823210  
    4358    2.824328  4359    2.826818  4360    2.828105  
    4361    2.828318  4362    2.828916  4363    2.830539  
    4364    2.832035  4365    2.832266  4366    2.832693  
    4367    2.833645  4368    2.834989  4369    2.837293  
    4370    2.838627  4371    2.838817  4372    2.839739  
    4373    2.840516  4374    2.841522  4375    2.842018  
    4376    2.842824  4377    2.843706  4378    2.845103  
    4379    2.845974  4380    2.846329  4381    2.848175  
    4382    2.850435  4383    2.850726  4384    2.851016  
    4385    2.851590  4386    2.852690  4387    2.853375  
    4388    2.853881  4389    2.855581  4390    2.856794  
    4391    2.858056  4392    2.859115  4393    2.860105  
    4394    2.861017  4395    2.861290  4396    2.862331  
    4397    2.865138  4398    2.865729  4399    2.866566  
    4400    2.867755  4401    2.870202  4402    2.871034  
    4403    2.871672  4404    2.874533  4405    2.875810  
    4406    2.877175  4407    2.877894  4408    2.879258  
    4409    2.879943  4410    2.883219  4411    2.885187  
    4412    2.885790  4413    2.887813  4414    2.888475  
    4415    2.889136  4416    2.890209  4417    2.891396  
    4418    2.892661  4419    2.894328  4420    2.894440  
    4421    2.897392  4422    2.899063  4423    2.900616  
    4424    2.901724  4425    2.903346  4426    2.905653  
    4427    2.906445  4428    2.907414  4429    2.907893  
    4430    2.909141  4431    2.910738  4432    2.911825  
    4433    2.912546  4434    2.913745  4435    2.916969  
    4436    2.919320  4437    2.920006  4438    2.921039  
    4439    2.924219  4440    2.924559  4441    2.925991  
    4442    2.926705  4443    2.927924  4444    2.929521  
    4445    2.930322  4446    2.931646  4447    2.933149  
    4448    2.935570  4449    2.936690  4450    2.938154  
    4451    2.940116  4452    2.942137  4453    2.943255  
    4454    2.946947  4455    2.947896  4456    2.948957  
    4457    2.949334  4458    2.950818  4459    2.954273  
    4460    2.955912  4461    2.957661  4462    2.958322  
    4463    2.960016  4464    2.960478  4465    2.961853  
    4466    2.964123  4467    2.966929  4468    2.971565  
    4469    2.972946  4470    2.974313  4471    2.974740  
    4472    2.975769  4473    2.976702  4474    2.978101  
    4475    2.980902  4476    2.981369  4477    2.983025  
    4478    2.984524  4479    2.985266  4480    2.986731  
    4481    2.987389  4482    2.989183  4483    2.990009  
    4484    2.992962  4485    2.994648  4486    2.995338  
    4487    2.996916  4488    2.998006  4489    3.000452  
    4490    3.002917  4491    3.003931  4492    3.004890  
    4493    3.006643  4494    3.009107  4495    3.010817  
    4496    3.012305  4497    3.012832  4498    3.015220  
    4499    3.016187  4500    3.018571  4501    3.020794  
    4502    3.023051  4503    3.025239  4504    3.025499  
    4505    3.026114  4506    3.029238  4507    3.029969  
    4508    3.031884  4509    3.033968  4510    3.034073  
    4511    3.035479  4512    3.035975  4513    3.037256  
    4514    3.038184  4515    3.038668  4516    3.041119  
    4517    3.042229  4518    3.044563  4519    3.045449  
    4520    3.048267  4521    3.050021  4522    3.050510  
    4523    3.054538  4524    3.054609  4525    3.056778  
    4526    3.060124  4527    3.061658  4528    3.062399  
    4529    3.063324  4530    3.063590  4531    3.064346  
    4532    3.066735  4533    3.067137  4534    3.069278  
    4535    3.072551  4536    3.073447  4537    3.076563  
    4538    3.077290  4539    3.078202  4540    3.080002  
    4541    3.083059  4542    3.083900  4543    3.085197  
    4544    3.085593  4545    3.087371  4546    3.088461  
    4547    3.089181  4548    3.091062  4549    3.093664  
    4550    3.095685  4551    3.096380  4552    3.098544  
    4553    3.099433  4554    3.102094  4555    3.104033  
    4556    3.106038  4557    3.107696  4558    3.109499  
    4559    3.109602  4560    3.110601  4561    3.112645  
    4562    3.113402  4563    3.115861  4564    3.117685  
    4565    3.118616  4566    3.123200  4567    3.126891  
    4568    3.132102  4569    3.133985  4570    3.136604  
    4571    3.137871  4572    3.138673  4573    3.141122  
    4574    3.144717  4575    3.147661  4576    3.150161  
    4577    3.151069  4578    3.152039  4579    3.154858  
    4580    3.157578  4581    3.158804  4582    3.160987  
    4583    3.165340  4584    3.168330  4585    3.169952  
    4586    3.172001  4587    3.174865  4588    3.176374  
    4589    3.179585  4590    3.183667  4591    3.187628  
    4592    3.188710  4593    3.192158  4594    3.195891  
    4595    3.198103  4596    3.201166  4597    3.203187  
    4598    3.203835  4599    3.207004  4600    3.208420  
    4601    3.209650  4602    3.211009  4603    3.213034  
    4604    3.215422  4605    3.217408  4606    3.219049  
    4607    3.219497  4608    3.220962  4609    3.222412  
    4610    3.227658  4611    3.228435  4612    3.232196  
    4613    3.236081  4614    3.237785  4615    3.241877  
    4616    3.243894  4617    3.248320  4618    3.249747  
    4619    3.253923  4620    3.255383  4621    3.258668  
    4622    3.264698  4623    3.268305  4624    3.274787  
    4625    3.276857  4626    3.279155  4627    3.282223  
    4628    3.282742  4629    3.285814  4630    3.287401  
    4631    3.290053  4632    3.291555  4633    3.296668  
    4634    3.301740  4635    3.303005  4636    3.308742  
    4637    3.310229  4638    3.313843  4639    3.318459  
    4640    3.320439  4641    3.321339  4642    3.324388  
    4643    3.328205  4644    3.330370  4645    3.334380  
    4646    3.335343  4647    3.339179  4648    3.341274  
    4649    3.343427  4650    3.350293  4651    3.356417  
    4652    3.360567  4653    3.365940  4654    3.370072  
    4655    3.373940  4656    3.376379  4657    3.384448  
    4658    3.387007  4659    3.388501  4660    3.392403  
    4661    3.397811  4662    3.399319  4663    3.411228  
    4664    3.412173  4665    3.413572  4666    3.421968  
    4667    3.424352  4668    3.428452  4669    3.433520  
    4670    3.436743  4671    3.438141  4672    3.439186  
    4673    3.441039  4674    3.443851  4675    3.448928  
    4676    3.451601  4677    3.453517  4678    3.459052  
    4679    3.460873  4680    3.470884  4681    3.472154  
    4682    3.482640  4683    3.486501  4684    3.489406  
    4685    3.492995  4686    3.502621  4687    3.510908  
    4688    3.512889  4689    3.514273  4690    3.529833  
    4691    3.535194  4692    3.543784  4693    3.548115  
    4694    3.554823  4695    3.557451  4696    3.567684  
    4697    3.572289  4698    3.572543  4699    3.580579  
    4700    3.582902  4701    3.587031  4702    3.590997  
    4703    3.600778  4704    3.609450  4705    3.611140  
    4706    3.616203  4707    3.621069  4708    3.627860  
    4709    3.632195  4710    3.636099  4711    3.642823  
    4712    3.648989  4713    3.662073  4714    3.673476  
    4715    3.678193  4716    3.693609  4717    3.705828  
    4718    3.719713  4719    3.720415  4720    3.730152  
    4721    3.735264  4722    3.735557  4723    3.739218  
    4724    3.744482  4725    3.753815  4726    3.757796  
    4727    3.759909  4728    3.765248  4729    3.768843  
    4730    3.771671  4731    3.776595  4732    3.783837  
    4733    3.799169  4734    3.802383  4735    3.813002  
    4736    3.817882  4737    3.841129  4738    3.871347  
    4739    3.884457  4740    3.890336  4741    3.891666  
    4742    3.894246  4743    3.902495  4744    3.903401  
    4745    3.908012  4746    3.912196  4747    3.914808  
    4748    3.915944  4749    3.917038  4750    3.918346  
    4751    3.923183  4752    3.942440  4753    3.948987  
    4754    3.954763  4755    3.961450  4756    3.974534  
    4757    3.984253  4758    3.985112  4759    3.990473  
    4760    3.991382  4761    3.994277  4762    3.996933  
    4763    3.999852  4764    4.013831  4765    4.021945  
    4766    4.022476  4767    4.034991  4768    4.045974  
    4769    4.054143  4770    4.071746  4771    4.079694  
    4772    4.084613  4773    4.110187  4774    4.113887  
    4775    4.130132  4776    4.145540  4777    4.147519  
    4778    4.159322  4779    4.167470  4780    4.175598  
    4781    4.195978  4782    4.233995  4783    4.246460  
    4784    4.369934  4785    4.451424  4786    4.454049  
    4787    4.489502  4788    4.526653  4789    4.633807  
    4790    4.768173  4791    5.000828  4792    5.302083  
    4793    5.600072  4794    5.652466  4795    5.688021  
    4796    5.809561  4797    5.941598  4798    5.953509  
    4799    5.987144  4800    6.027380  4801    6.421636  
    4802    6.609446  4803   18.158053  4804   18.570180  
    4805   25.341470  4806   33.279760  4807   33.304770  

  ==> Frozen Core <==


    ------------------
    Range      A     B
    ------------------
    nbf     4807  4807
    nmo     4807  4807
    nocc      20   757
    nvir    4787  4050
    nfocc      5   206
    naocc     15   551
    navir   4787  4050
    nfvir      0     0
    ------------------

  ==> Unification <==

  ==> dHF <==

    E ABC(HF) =  -1.0110770958805791E+04 [Eh]
    E AC(0)   =  -2.8221634806000787E+02 [Eh]
    E BC(0)   =  -9.8282979950146982E+03 [Eh]
    E A(0)    =  -2.8221634806000787E+02 [Eh]
    E B(0)    =  -9.8282979950146982E+03 [Eh]
    E AC(HF)  =  -2.8187576793485050E+02 [Eh]
    E BC(HF)  =  -9.8281056170188094E+03 [Eh]
    E AB(HF)  =  -1.0110770958488603E+04 [Eh]
    E A(HF)   =  -2.8187576793485050E+02 [Eh]
    E B(HF)   =  -9.8281056170188094E+03 [Eh]
    E C       =   0.0000000000000000E+00 [Eh]
    E HF      =  -2.5661573108482116E-01 [Eh]

  ==> Electrostatics <==

    Elst10,r            =    -0.344984257754 [Eh]

  ==> Exchange <==

    Exch10(S^2)         =     0.177438778793 [Eh]
    Exch10              =     0.177600093564 [Eh]

  ==> Induction <==

    Ind20,u (A<-B)      =    -0.051643690057 [Eh]
    Ind20,u (B<-A)      =    -0.059434088622 [Eh]
    Ind20,u             =    -0.111077778679 [Eh]
    Exch-Ind20,u (A<-B) =     0.031312038629 [Eh]
    Exch-Ind20,u (B<-A) =     0.010882906485 [Eh]
    Exch-Ind20,u        =     0.042194945114 [Eh]

  ==> CPHF Iterations <==

    Maxiter     =         100
    Convergence =   1.000E-08

    -----------------------------------------
    Iter   Monomer A    Monomer B    Time [s]
    -----------------------------------------
    1      2.414E-01    2.712E-01        6862
    2      9.396E-02    8.004E-02       14878
    3      2.764E-02    2.959E-02       20542
    4      1.121E-02    9.300E-03       27011
    5      3.902E-03    4.137E-03       31949
    6      1.776E-03    1.526E-03       40586
    7      6.012E-04    8.525E-04       46513
    8      2.451E-04    3.532E-04       55527
    9      7.976E-05    1.719E-04       62683
    10     3.553E-05    7.105E-05       69748
    11     8.657E-06    2.703E-05       78139
    12     3.308E-06    1.192E-05       86754
    13     8.611E-07    4.242E-06       94377
    14     3.419E-07    1.952E-06      100240
    15     1.336E-07    6.485E-07      107228
    16     3.730E-08    3.159E-07      112820
    17     1.105E-08    1.203E-07      119092
    18     2.067E-09*   6.325E-08      125784
    19     2.067E-09*   2.408E-08      131547
    20     2.067E-09*   1.023E-08      140098
    21     2.067E-09*   3.856E-09*     146147
    -----------------------------------------

    Ind20,r (A<-B)      =    -0.064780387502 [Eh]
    Ind20,r (B<-A)      =    -0.056225665943 [Eh]
    Ind20,r             =    -0.121006053446 [Eh]
    Exch-Ind20,r (A<-B) =     0.041204608319 [Eh]
    Exch-Ind20,r (B<-A) =     0.013534704314 [Eh]
    Exch-Ind20,r        =     0.054739312633 [Eh]

  ==> F-SAPT Localization (IBO) <==

  Local Orbitals for Monomer A:

  ==> IBO Localizer 2 <==

    MinAO Basis = CC-PVTZ-MINAO
    Use Ghosts  =       FALSE
    Use Stars   =       FALSE
    Condition   =   1.000E-07
    Power       =           4
    Convergence =   1.000E-12
    Maxiter     =        1000

    @IBO Iter:                   Metric       Gradient
    @IBO    1:   1.5474232440528737E+00   1.827282E+00
    @IBO    2:   1.7712953783907512E+00   1.329462E+00
    @IBO    3:   1.8109084886939877E+00   5.015953E-01
    @IBO    4:   1.8167409675877024E+00   1.929413E-02
    @IBO    5:   1.8167533439027226E+00   4.412274E-04
    @IBO    6:   1.8167533485120209E+00   1.891533E-05
    @IBO    7:   1.8167533485175036E+00   9.453348E-07
    @IBO    8:   1.8167533485175176E+00   4.712888E-08
    @IBO    9:   1.8167533485175174E+00   2.347140E-09
    @IBO   10:   1.8167533485175176E+00   1.167772E-10
    @IBO   11:   1.8167533485175178E+00   5.806465E-12
    @IBO   12:   1.8167533485175180E+00   2.885771E-13

    IBO Localizer 2 converged.

  Local Orbitals for Monomer B:

  ==> IBO Localizer 2 <==

    MinAO Basis = CC-PVTZ-MINAO
    Use Ghosts  =       FALSE
    Use Stars   =       FALSE
    Condition   =   1.000E-07
    Power       =           4
    Convergence =   1.000E-12
    Maxiter     =        1000

    @IBO Iter:                   Metric       Gradient
    @IBO    1:   3.7268250572684156E+00   9.191385E+00
    @IBO    2:   4.1229270968893879E+00   7.190094E+00
    @IBO    3:   4.2675673477383897E+00   3.446562E+00
    @IBO    4:   4.2851442149855732E+00   2.944502E-01
    @IBO    5:   4.2852541415855132E+00   1.823074E-02
    @IBO    6:   4.2852544259630507E+00   5.497886E-04
    @IBO    7:   4.2852544274874660E+00   1.229667E-04
    @IBO    8:   4.2852544275696989E+00   2.940163E-05
    @IBO    9:   4.2852544275744178E+00   7.111674E-06
    @IBO   10:   4.2852544275746913E+00   1.729938E-06
    @IBO   11:   4.2852544275747073E+00   4.224910E-07
    @IBO   12:   4.2852544275747100E+00   1.035274E-07
    @IBO   13:   4.2852544275747109E+00   2.544506E-08
    @IBO   14:   4.2852544275747091E+00   6.271648E-09
    @IBO   15:   4.2852544275747118E+00   1.550037E-09
    @IBO   16:   4.2852544275747109E+00   3.841139E-10
    @IBO   17:   4.2852544275747091E+00   9.543965E-11
    @IBO   18:   4.2852544275747082E+00   2.377704E-11
    @IBO   19:   4.2852544275747091E+00   5.939693E-12
    @IBO   20:   4.2852544275747091E+00   1.487897E-12
    @IBO   21:   4.2852544275747082E+00   3.737520E-13

    IBO Localizer 2 converged.

  ==> F-SAPT Electrostatics <==

  DFHelper Memory: AOs need 3690.955 GiB; user supplied 100.583 GiB. Turning off in-core AOs.

  ==> DFHelper <==
    NBF:                            4807
    NAux:                          21388
    Schwarz Cutoff:                1E-12
    Mask sparsity (%):                65
    DFH Avail. Memory [GiB]:     100.583
    OpenMP threads:                   10
    Algorithm:                DIRECT_iaQ
    AO Core:                       False
    MO Core:                       False
    Hold Metric:                   False
    Metric Power:                 -0.500
    Fitting Condition:             1E-12
    Q Shell Max:                       7


    Elst10,r            =    -0.344985218753 [Eh]

  ==> F-SAPT Exchange <==

    Exch10(S^2)         =     0.177437728541 [Eh]

    Scaling F-SAPT Exch10(S^2) by   1.001E+00 to match Exch10

  ==> F-SAPT Induction <==

    Ind20,u (A<-B)      =    -0.051643647452 [Eh]
    Ind20,u (B<-A)      =    -0.059434112950 [Eh]
    Ind20,u             =    -0.111077760402 [Eh]
    Exch-Ind20,u (A<-B) =     0.031312015432 [Eh]
    Exch-Ind20,u (B<-A) =     0.010882908759 [Eh]
    Exch-Ind20,u        =     0.042194924191 [Eh]

    Scaling for delta HF        =   1.347E+00
    Scaling for response (A<-B) =   1.160E+00
    Scaling for response (B<-A) =   8.793E-01
    Scaling for total (A<-B)    =   1.561E+00
    Scaling for total (B<-A)    =   1.184E+00

  ==> F-SAPT Dispersion <==

  DFHelper Memory: AOs need 2837.873 GiB; user supplied 99.573 GiB. Turning off in-core AOs.

  ==> DFHelper <==
    NBF:                            4807
    NAux:                          16441
    Schwarz Cutoff:                1E-12
    Mask sparsity (%):                65
    DFH Avail. Memory [GiB]:      99.573
    OpenMP threads:                   10
    Algorithm:                DIRECT_iaQ
    AO Core:                       False
    MO Core:                       False
    Hold Metric:                   False
    Metric Power:                 -0.500
    Fitting Condition:             1E-12
    Q Shell Max:                       7


    13500000000 doubles - 288422980 overhead leaves 13211577020 for dispersion
    Processing a single (r,s) pair requires 37222424 doubles
    4787 values of r processed in 14 blocks of 354
    4050 values of s processed in 12 blocks of 354

    Disp20              =    -0.078837859721 [Eh]
    Exch-Disp20         =     0.015294539186 [Eh]

  ==> F-SAPT Output <==

    F-SAPT Data Filepath = fsapt/

  ==> Results <==


    SAPT Results  
  --------------------------------------------------------------------------------------------------------
    Electrostatics               -344.98425775 [mEh]    -216.48089004 [kcal/mol]    -905.75604395 [kJ/mol]
      Elst10,r                   -344.98425775 [mEh]    -216.48089004 [kcal/mol]    -905.75604395 [kJ/mol]

    Exchange                      177.60009356 [mEh]     111.44574126 [kcal/mol]     466.28898141 [kJ/mol]
      Exch10                      177.60009356 [mEh]     111.44574126 [kcal/mol]     466.28898141 [kJ/mol]
      Exch10(S^2)                 177.43877879 [mEh]     111.34451471 [kcal/mol]     465.86544954 [kJ/mol]

    Induction                     -89.23156689 [mEh]     -55.99365359 [kcal/mol]    -234.27744660 [kJ/mol]
      Ind20,r                    -121.00605345 [mEh]     -75.93244492 [kcal/mol]    -317.70134955 [kJ/mol]
      Exch-Ind20,r                 54.73931263 [mEh]      34.34943727 [kcal/mol]     143.71804552 [kJ/mol]
      delta HF,r (2)              -22.96482608 [mEh]     -14.41064593 [kcal/mol]     -60.29414257 [kJ/mol]
      Induction (A<-B)            -31.74599643 [mEh]     -19.92091351 [kcal/mol]     -83.34910215 [kJ/mol]
      Induction (B<-A)            -57.48557046 [mEh]     -36.07274007 [kcal/mol]    -150.92834446 [kJ/mol]

    Dispersion                    -63.54332053 [mEh]     -39.87403563 [kcal/mol]    -166.83296508 [kJ/mol]
      Disp20                      -78.83785972 [mEh]     -49.47150387 [kcal/mol]    -206.98877218 [kJ/mol]
      Exch-Disp20                  15.29453919 [mEh]       9.59746824 [kcal/mol]      40.15580710 [kJ/mol]

  Total HF                       -256.61573108 [mEh]    -161.02880238 [kcal/mol]    -673.74450914 [kJ/mol]
  Total SAPT0                    -320.15905162 [mEh]    -200.90283801 [kcal/mol]    -840.57747422 [kJ/mol]

  --------------------------------------------------------------------------------------------------------
    Han Solo: This is *not* gonna work.
    Luke Skywalker: Why didn't you say so before?
    Han Solo: I *did* say so before.

    Psi4 stopped on: Wednesday, 06 July 2022 01:00PM
    Psi4 wall time for execution: 8 days, 2:08:56.70

*** Psi4 exiting successfully. Buy a developer a beer!
